# vtk DataFile Version 2.0
vtk output
ASCII
DATASET STRUCTURED_POINTS
DIMENSIONS 7 7 7
SPACING 1.000000 1.000000 1.000000 
ORIGIN 0.000000 0.000000 0.000000 
POINT_DATA 343 
SCALARS tensor float 1
LOOKUP_TABLE default
0.000000 0.000000 0.000000 0.000000 0.000000 0.000000 0.000000 0.000000 0.000000 0.000000 0.000000 0.000000 0.000000 0.000000 0.000000 0.000000 0.000001 0.000002 0.000001 0.000000 0.000000 0.000000 0.000000 0.000002 0.000005 0.000002 0.000000 0.000000 0.000000 0.000000 0.000001 0.000002 0.000001 0.000000 0.000000 0.000000 0.000000 0.000000 0.000000 0.000000 0.000000 0.000000 0.000000 0.000000 0.000000 0.000000 0.000000 0.000000 0.000000 0.000000 0.000000 0.000000 0.000000 0.000000 0.000000 0.000000 0.000000 0.000000 0.000005 0.000018 0.000005 0.000000 0.000000 0.000000 0.000005 0.000190 0.000622 0.000190 0.000005 0.000000 0.000000 0.000018 0.000622 0.002030 0.000622 0.000018 0.000000 0.000000 0.000005 0.000190 0.000622 0.000190 0.000005 0.000000 0.000000 0.000000 0.000005 0.000018 0.000005 0.000000 0.000000 0.000000 0.000000 0.000000 0.000000 0.000000 0.000000 0.000000 0.000000 0.000000 0.000001 0.000002 0.000001 0.000000 0.000000 0.000000 0.000005 0.000190 0.000622 0.000190 0.000005 0.000000 0.000001 0.000190 0.006630 0.021650 0.006630 0.000190 0.000001 0.000002 0.000622 0.021650 0.070698 0.021650 0.000622 0.000002 0.000001 0.000190 0.006630 0.021650 0.006630 0.000190 0.000001 0.000000 0.000005 0.000190 0.000622 0.000190 0.000005 0.000000 0.000000 0.000000 0.000001 0.000002 0.000001 0.000000 0.000000 0.000000 0.000000 0.000002 0.000005 0.000002 0.000000 0.000000 0.000000 0.000018 0.000622 0.002030 0.000622 0.000018 0.000000 0.000002 0.000622 0.021650 0.070698 0.021650 0.000622 0.000002 0.000005 0.002030 0.070698 0.230870 0.070698 0.002030 0.000005 0.000002 0.000622 0.021650 0.070698 0.021650 0.000622 0.000002 0.000000 0.000018 0.000622 0.002030 0.000622 0.000018 0.000000 0.000000 0.000000 0.000002 0.000005 0.000002 0.000000 0.000000 0.000000 0.000000 0.000001 0.000002 0.000001 0.000000 0.000000 0.000000 0.000005 0.000190 0.000622 0.000190 0.000005 0.000000 0.000001 0.000190 0.006630 0.021650 0.006630 0.000190 0.000001 0.000002 0.000622 0.021650 0.070698 0.021650 0.000622 0.000002 0.000001 0.000190 0.006630 0.021650 0.006630 0.000190 0.000001 0.000000 0.000005 0.000190 0.000622 0.000190 0.000005 0.000000 0.000000 0.000000 0.000001 0.000002 0.000001 0.000000 0.000000 0.000000 0.000000 0.000000 0.000000 0.000000 0.000000 0.000000 0.000000 0.000000 0.000005 0.000018 0.000005 0.000000 0.000000 0.000000 0.000005 0.000190 0.000622 0.000190 0.000005 0.000000 0.000000 0.000018 0.000622 0.002030 0.000622 0.000018 0.000000 0.000000 0.000005 0.000190 0.000622 0.000190 0.000005 0.000000 0.000000 0.000000 0.000005 0.000018 0.000005 0.000000 0.000000 0.000000 0.000000 0.000000 0.000000 0.000000 0.000000 0.000000 0.000000 0.000000 0.000000 0.000000 0.000000 0.000000 0.000000 0.000000 0.000000 0.000000 0.000000 0.000000 0.000000 0.000000 0.000000 0.000000 0.000001 0.000002 0.000001 0.000000 0.000000 0.000000 0.000000 0.000002 0.000005 0.000002 0.000000 0.000000 0.000000 0.000000 0.000001 0.000002 0.000001 0.000000 0.000000 0.000000 0.000000 0.000000 0.000000 0.000000 0.000000 0.000000 0.000000 0.000000 0.000000 0.000000 0.000000 0.000000 0.000000 